
  ___ ___ ___ _ _ _  
 |   |   |_  | | | | 
 | | | | | . | | | | 
 |__ |  _|___|_____|  0.7.2.6974
 |___|_|             

User: dirac@dirac
Date: Tue May  3 09:46:36 2011
Arch: x86_64
Pid:  741
Dir:  /usr/lib/python2.6/dist-packages/gpaw
ase:   /usr/lib/python2.6/dist-packages/ase  version:  3.4.1
numpy: /usr/lib/python2.6/dist-packages/numpy
units: Angstrom and eV

Memory estimate
---------------
Calculator  1123.91 MiB
    Initial overhead  757.22 MiB
    Density  28.52 MiB
        Arrays  5.03 MiB
        Localized functions  17.02 MiB
        Mixer  1.16 MiB
        Interpolator  5.31 MiB
    Hamiltonian  35.48 MiB
        Arrays  3.29 MiB
        Restrictor  3.38 MiB
        XC 3D grid  14.42 MiB
        Poisson  13.12 MiB
        vbar  1.27 MiB
    Wavefunctions  302.69 MiB
        Arrays psit_nG  198.00 MiB
        Eigensolver  51.43 MiB
        Projectors  2.82 MiB
        Overlap op  49.75 MiB
        Kinetic operator  0.68 MiB

Positions:
  0 Au    1.4425    0.8328   12.0000
  1 Au    4.3275    0.8328   12.0000
  2 Au    0.0000    3.3313   12.0000
  3 Au    2.8850    3.3313   12.0000
  4 Au    0.0000    1.6657   14.3556
  5 Au    2.8850    1.6657   14.3556
  6 Au    1.4425    4.1641   14.3556
  7 Au    4.3275    4.1641   14.3556
  8 Au    0.0000    0.0000   16.7112
  9 Au    2.8850    0.0000   16.7112
 10 Au    1.4425    2.4985   16.7112
 11 Au    4.3275    2.4985   16.7112
 12 B     2.8850    1.6657   19.4736
 13 F     4.0164    2.3189   19.0117
 14 F     1.7536    2.3189   19.0117
 15 F     2.8850    0.3593   19.0117
 16 F     2.8850    1.6657   20.8592

    .-------------.  
   /|             |  
  / |             |  
 *  |             |  
 |  |             |  
 |  |             |  
 |  |             |  
 |  |             |  
 |  |             |  
 |  |             |  
 |  |             |  
 |  |             |  
 |  |    F        |  
 |  |  F B  F     |  
 |  |             |  
 |  |   F         |  
 |  | Au     Au   |  
 |  |             |  
 Au |  AAu    Au  |  
 |  |             |  
 |Au|    Au       |  
 | Au     Au      |  
 |  |             |  
 |  |Au     Au    |  
 |  |             |  
 |  |             |  
 |  |             |  
 |  |             |  
 |  |             |  
 |  |             |  
 |  |             |  
 |  |             |  
 |  |             |  
 |  |             |  
 |  |             |  
 |  .-------------.  
 | /             /   
 |/             /    
 *-------------*     

Unit Cell:
           Periodic     X           Y           Z      Points  Spacing
  --------------------------------------------------------------------
  1. axis:    yes    5.769991    0.000000    0.000000    36     0.1603
  2. axis:    yes    0.000000    4.996959    0.000000    32     0.1562
  3. axis:    no     0.000000    0.000000   28.711178   180     0.1595

Au-setup:
  name   : Gold
  id     : ce9178880345ed3fcb954228c630895d
  Z      : 79
  valence: 11
  core   : 68
  charge : 0.0
  file   : /usr/share/gpaw-setups/Au.revPBE.gz
  cutoffs: 1.32(comp), 2.33(filt), 2.81(core), lmax=2
  valence states:
            energy   radius
    6s(1)   -5.619   1.323
    6p(0)   -0.750   1.323
    5d(10)  -6.822   1.323
    *s      21.593   1.323
    *p      26.461   1.323
    *d      20.390   1.323

Using partial waves for Au as LCAO basis

B-setup:
  name   : Boron
  id     : 67b004ea16031a88fa25c119c55bfaf0
  Z      : 5
  valence: 3
  core   : 2
  charge : 0.0
  file   : /usr/share/gpaw-setups/B.revPBE.gz
  cutoffs: 0.64(comp), 1.14(filt), 1.38(core), lmax=2
  valence states:
            energy   radius
    2s(2)   -9.465   0.635
    2p(1)   -3.568   0.635
    *s      17.746   0.635
    *p      23.644   0.635
    *d       0.000   0.635

Using partial waves for B as LCAO basis

F-setup:
  name   : Fluorine
  id     : 75e565187e9fed2cc0467175bc5580a0
  Z      : 9
  valence: 7
  core   : 2
  charge : 0.0
  file   : /usr/share/gpaw-setups/F.revPBE.gz
  cutoffs: 0.64(comp), 1.14(filt), 0.74(core), lmax=2
  valence states:
            energy   radius
    2s(2)  -29.933   0.635
    2p(5)  -11.043   0.635
    *s      -2.721   0.635
    *p      16.168   0.635
    *d       0.000   0.635

Using partial waves for F as LCAO basis

Using the vdW-DF Exchange-Correlation Functional.
Spin-Paired Calculation
Total Charge:      0.000000
Fermi Temperature: 0.100000
Mode: Finite-difference
Eigensolver:       rmm-diis
                   (3 nearest neighbors central finite-difference stencil)
Poisson Solver:    Jacobi 
                   (3 nearest neighbors central finite-difference stencil)
Interpolation:     6th Order
Reference Energy:  -6210841.593634

Total number of cores used: 8
Domain Decomposition: 1 x 1 x 8
Diagonalizer layout: Serial LAPACK
Orthonormalizer layout: Serial LAPACK

Symmetries present: 2
4 k-points in the Irreducible Part of the Brillouin Zone (total: 16)
Linear Mixing Parameter:           0.1
Pulay Mixing with 3 Old Densities
Damping of Long Wave Oscillations: 50

Convergence Criteria:
Total Energy Change per Atom:           0.001 eV / atom
Integral of Absolute Density Change:    0.0001 electrons
Integral of Absolute Eigenstate Change: 1e-09
Number of Bands in Calculation:         128
Bands to Converge:                      Occupied States Only
Number of Valence Electrons:            163
                     log10-error:    Total        Iterations:
           Time      WFS    Density  Energy       Fermi  Poisson
iter:   1  09:58:53  +1.3            -1194.53212  3      669    
iter:   2  10:02:03  -1.4            -1202.89442  3             
iter:   3  10:05:13  -1.8            -1204.23105  3             
