
  ___ ___ ___ _ _ _  
 |   |   |_  | | | | 
 | | | | | . | | | | 
 |__ |  _|___|_____|  0.7.2.6974
 |___|_|             

User: dirac@dirac
Date: Mon May  2 16:58:15 2011
Arch: x86_64
Pid:  753
Dir:  /usr/lib/python2.6/dist-packages/gpaw
ase:   /usr/lib/python2.6/dist-packages/ase  version:  3.4.1
numpy: /usr/lib/python2.6/dist-packages/numpy
units: Angstrom and eV

Memory estimate
---------------
Calculator  1309.84 MiB
    Initial overhead  107.28 MiB
    Density  43.72 MiB
        Arrays  7.90 MiB
        Localized functions  26.10 MiB
        Mixer  1.80 MiB
        Interpolator  7.92 MiB
    Hamiltonian  55.15 MiB
        Arrays  5.17 MiB
        Restrictor  5.10 MiB
        XC 3D grid  22.57 MiB
        Poisson  20.36 MiB
        vbar  1.95 MiB
    Wavefunctions  1103.69 MiB
        Arrays psit_nG  875.88 MiB
        Eigensolver  112.49 MiB
        Projectors  4.34 MiB
        Overlap op  109.99 MiB
        Kinetic operator  0.99 MiB

Positions:
  0 Au    1.4425    0.8328   12.0000
  1 Au    4.3275    0.8328   12.0000
  2 Au    7.2125    0.8328   12.0000
  3 Au    0.0000    3.3313   12.0000
  4 Au    2.8850    3.3313   12.0000
  5 Au    5.7700    3.3313   12.0000
  6 Au    0.0000    1.6657   14.3556
  7 Au    2.8850    1.6657   14.3556
  8 Au    5.7700    1.6657   14.3556
  9 Au    1.4425    4.1641   14.3556
 10 Au    4.3275    4.1641   14.3556
 11 Au    7.2125    4.1641   14.3556
 12 Au    0.0000    0.0000   16.7112
 13 Au    2.8850    0.0000   16.7112
 14 Au    5.7700    0.0000   16.7112
 15 Au    1.4425    2.4985   16.7112
 16 Au    4.3275    2.4985   16.7112
 17 Au    7.2125    2.4985   16.7112
 18 B     2.8850    1.6657   19.4736
 19 F     4.0164    2.3189   19.0117
 20 F     1.7536    2.3189   19.0117
 21 F     2.8850    0.3593   19.0117
 22 F     2.8850    1.6657   20.8592

    .--------------------.  
   /|                    |  
  / |                    |  
 *  |                    |  
 |  |                    |  
 |  |                    |  
 |  |                    |  
 |  |                    |  
 |  |                    |  
 |  |                    |  
 |  |                    |  
 |  |                    |  
 |  |    F               |  
 |  |  F B  F            |  
 |  |                    |  
 |  |   F                |  
 |  | Au     Au     Au   |  
 |  |                    |  
 Au |  AAu    AAu    Au  |  
 |  |                    |  
 |Au|    Au     Au       |  
 | Au     Au     Au      |  
 |  |                    |  
 |  |Au     Au     Au    |  
 |  |                    |  
 |  |                    |  
 |  |                    |  
 |  |                    |  
 |  |                    |  
 |  |                    |  
 |  |                    |  
 |  |                    |  
 |  |                    |  
 |  |                    |  
 |  |                    |  
 |  .--------------------.  
 | /                    /   
 |/                    /    
 *--------------------*     

Unit Cell:
           Periodic     X           Y           Z      Points  Spacing
  --------------------------------------------------------------------
  1. axis:    yes    8.654987    0.000000    0.000000    56     0.1546
  2. axis:    yes    0.000000    4.996959    0.000000    32     0.1562
  3. axis:    no     0.000000    0.000000   28.711178   180     0.1595

Au-setup:
  name   : Gold
  id     : f729301af73151f9133db6f6e28f92a1
  Z      : 79
  valence: 11
  core   : 68
  charge : 0.0
  file   : /usr/share/gpaw-setups/Au.RPBE.gz
  cutoffs: 1.32(comp), 2.33(filt), 2.81(core), lmax=2
  valence states:
            energy   radius
    6s(1)   -5.611   1.323
    6p(0)   -0.793   1.323
    5d(10)  -6.824   1.323
    *s      21.600   1.323
    *p      26.419   1.323
    *d      20.388   1.323

Using partial waves for Au as LCAO basis

B-setup:
  name   : Boron
  id     : 4c085ebb9e6144015c26e053032a3a9b
  Z      : 5
  valence: 3
  core   : 2
  charge : 0.0
  file   : /usr/share/gpaw-setups/B.RPBE.gz
  cutoffs: 0.64(comp), 1.14(filt), 1.38(core), lmax=2
  valence states:
            energy   radius
    2s(2)   -9.489   0.635
    2p(1)   -3.587   0.635
    *s      17.723   0.635
    *p      23.625   0.635
    *d       0.000   0.635

Using partial waves for B as LCAO basis

F-setup:
  name   : Fluorine
  id     : 96d5c0c6d5d6dd1db009b0a4cc47c564
  Z      : 9
  valence: 7
  core   : 2
  charge : 0.0
  file   : /usr/share/gpaw-setups/F.RPBE.gz
  cutoffs: 0.64(comp), 1.14(filt), 0.74(core), lmax=2
  valence states:
            energy   radius
    2s(2)  -29.979   0.635
    2p(5)  -11.057   0.635
    *s      -2.768   0.635
    *p      16.154   0.635
    *d       0.000   0.635

Using partial waves for F as LCAO basis

Using the RPBE Exchange-Correlation Functional.
Spin-Paired Calculation
Total Charge:      0.000000
Fermi Temperature: 0.100000
Mode: Finite-difference
Eigensolver:       rmm-diis
                   (3 nearest neighbors central finite-difference stencil)
Poisson Solver:    Jacobi 
                   (3 nearest neighbors central finite-difference stencil)
Interpolation:     6th Order
Reference Energy:  -9310573.103046

Total number of cores used: 8
Domain Decomposition: 2 x 1 x 4
Diagonalizer layout: Serial LAPACK
Orthonormalizer layout: Serial LAPACK

Symmetries present: 1
8 k-points in the Irreducible Part of the Brillouin Zone (total: 16)
Linear Mixing Parameter:           0.1
Pulay Mixing with 3 Old Densities
Damping of Long Wave Oscillations: 50

Convergence Criteria:
Total Energy Change per Atom:           0.001 eV / atom
Integral of Absolute Density Change:    0.0001 electrons
Integral of Absolute Eigenstate Change: 1e-09
Number of Bands in Calculation:         182
Bands to Converge:                      Occupied States Only
Number of Valence Electrons:            229
                     log10-error:    Total        Iterations:
           Time      WFS    Density  Energy       Fermi  Poisson
iter:   1  17:22:16  +1.4            -63.67872    3      706    
iter:   2  17:34:01  -1.4            -75.20567    3             
iter:   3  17:45:47  -1.9            -77.21832    3             
iter:   4  18:01:42  -2.1   -1.3     -73.71019    10     355    
iter:   5  18:18:35  -1.3   -1.4     -68.66238    19     438    
iter:   6  18:32:06  -2.2   -1.7     -69.78995    4      143    
iter:   7  18:45:16  -3.0   -1.8     -69.81527    3      132    
iter:   8  18:58:26  -3.4   -1.9     -69.78876    3      115    
iter:   9  19:11:22  -2.9   -2.0     -69.76566    3      79     
iter:  10  19:23:44  -3.8   -2.5     -69.79046    3      63     
iter:  11  19:36:34  -3.8   -2.5     -69.77377    3      94     
iter:  12  19:49:25  -4.0   -2.7     -69.77026    3      93     
iter:  13  20:02:23  -4.8   -2.9     -69.76968    3      59     
iter:  14  20:14:52  -5.3   -3.0     -69.76853    3      34     
iter:  15  20:27:15  -5.1   -3.1     -69.76656    3      47     
iter:  16  20:39:28  -5.8   -3.4     -69.76850    2      23     
iter:  17  20:51:30  -6.0   -3.5     -69.77107    2      14     
iter:  18  21:03:27  -6.2   -3.7     -69.77196    2      11     
iter:  19  21:15:49  -6.6   -4.0     -69.77003    2      5      
iter:  20  21:27:31  -6.9   -4.2     -69.76919    2      4      
iter:  21  21:39:30  -7.2   -4.3     -69.76973    2      3      
iter:  22  21:51:23  -7.5   -4.4     -69.77087    2      3      
iter:  23  22:03:29  -7.7   -4.6     -69.77162    2      3      
iter:  24  22:15:28  -8.0   -4.8     -69.77138    2      2      
iter:  25  22:27:11  -8.1   -4.8     -69.77030    2      3      
iter:  26  22:38:56  -8.5   -4.8     -69.77044    2      2      
iter:  27  22:50:46  -8.5   -4.9     -69.77056    2      2      
iter:  28  23:02:25  -9.0   -5.0     -69.77041    1      1      
iter:  29  23:14:51  -9.2   -5.0     -69.77009    2      1      
------------------------------------
Converged After 29 Iterations.

Energy Contributions Relative to Reference Atoms:(reference = -9310573.10305)
-------------------------
Kinetic:        -83.17029
Potential:      +56.87134
External:        +0.00000
XC:             -46.93171
Entropy (-ST):   -0.19569
Local:           +3.55841
-------------------------
Free Energy:    -69.86794
Zero Kelvin:    -69.77009

Fermi Level: -6.39042


Total Charge:  -0.000000 electrons
Dipole Moment: [-4.47234773 -4.81650096 -0.93672142]

Forces in eV/Ang:
  0 Au   -0.04403   -0.04454   -0.72842
  1 Au    0.00694    0.05066   -0.69817
  2 Au    0.03722   -0.01437   -0.68380
  3 Au    0.00053    0.06274   -0.70428
  4 Au    0.03720   -0.05257   -0.77100
  5 Au   -0.03786   -0.03249   -0.73467
  6 Au    0.04733   -0.03286    0.08889
  7 Au    0.01474    0.04097    0.13178
  8 Au   -0.06173    0.07497    0.08872
  9 Au    0.02529    0.02070    0.17649
 10 Au   -0.04030   -0.08733    0.17694
 11 Au    0.01455    0.03847    0.00128
 12 Au   -0.20625   -0.03119    0.56359
 13 Au   -0.05791   -0.25533   -0.25159
 14 Au    0.26246   -0.03125    0.60916
 15 Au   -0.31928    0.12456   -0.21175
 16 Au    0.37695    0.12465   -0.25782
 17 Au   -0.05642    0.01212    0.68517
 18 B     0.00045    0.00958    2.86759
 19 F     1.57308    0.81964   -0.14586
 20 F    -1.61858    0.90865   -0.15407
 21 F    -0.00767   -1.72440   -0.16049
 22 F    -0.03369   -0.03928    0.08840

Positions:
  0 Au    1.4425    0.8328   12.0000
  1 Au    4.3275    0.8328   12.0000
  2 Au    7.2125    0.8328   12.0000
  3 Au    0.0000    3.3313   12.0000
  4 Au    2.8850    3.3313   12.0000
  5 Au    5.7700    3.3313   12.0000
  6 Au    0.0000    1.6657   14.3556
  7 Au    2.8850    1.6657   14.3556
  8 Au    5.7700    1.6657   14.3556
  9 Au    1.4425    4.1641   14.3556
 10 Au    4.3275    4.1641   14.3556
 11 Au    7.2125    4.1641   14.3556
 12 Au   -0.0029   -0.0004   16.7190
 13 Au    2.8842   -0.0036   16.7077
 14 Au    5.7737   -0.0004   16.7197
 15 Au    1.4380    2.5002   16.7082
 16 Au    4.3328    2.5002   16.7076
 17 Au    7.2117    2.4986   16.7207
 18 B     2.8850    1.6658   19.5136
 19 F     4.0383    2.3303   19.0097
 20 F     1.7310    2.3315   19.0096
 21 F     2.8849    0.3352   19.0095
 22 F     2.8845    1.6651   20.8605

    .--------------------.  
   /|                    |  
  / |                    |  
 *  |                    |  
 |  |                    |  
 |  |                    |  
 |  |                    |  
 |  |                    |  
 |  |                    |  
 |  |                    |  
 |  |                    |  
 |  |                    |  
 |  |    F               |  
 |  |  F B  F            |  
 |  |                    |  
 |  |   F  Au     Au     Au 
 |  | Au     Au     Au   |  
 |  |                    |  
 |  |  Au     Au     Au  |  
 |  |                    |  
 |Au|    Au     Au       |  
 | Au     Au     Au      |  
 |  |                    |  
 |  |Au     Au     Au    |  
 |  |                    |  
 |  |                    |  
 |  |                    |  
 |  |                    |  
 |  |                    |  
 |  |                    |  
 |  |                    |  
 |  |                    |  
 |  |                    |  
 |  |                    |  
 |  |                    |  
 |  .--------------------.  
 | /                    /   
 |/                    /    
 *--------------------*     

Unit Cell:
           Periodic     X           Y           Z      Points  Spacing
  --------------------------------------------------------------------
  1. axis:    yes    8.654987    0.000000    0.000000    56     0.1546
  2. axis:    yes    0.000000    4.996959    0.000000    32     0.1562
  3. axis:    no     0.000000    0.000000   28.711178   180     0.1595

Au-setup:
  name   : Gold
  id     : f729301af73151f9133db6f6e28f92a1
  Z      : 79
  valence: 11
  core   : 68
  charge : 0.0
  file   : /usr/share/gpaw-setups/Au.RPBE.gz
  cutoffs: 1.32(comp), 2.33(filt), 2.81(core), lmax=2
  valence states:
            energy   radius
    6s(1)   -5.611   1.323
    6p(0)   -0.793   1.323
    5d(10)  -6.824   1.323
    *s      21.600   1.323
    *p      26.419   1.323
    *d      20.388   1.323

Using partial waves for Au as LCAO basis

B-setup:
  name   : Boron
  id     : 4c085ebb9e6144015c26e053032a3a9b
  Z      : 5
  valence: 3
  core   : 2
  charge : 0.0
  file   : /usr/share/gpaw-setups/B.RPBE.gz
  cutoffs: 0.64(comp), 1.14(filt), 1.38(core), lmax=2
  valence states:
            energy   radius
    2s(2)   -9.489   0.635
    2p(1)   -3.587   0.635
    *s      17.723   0.635
    *p      23.625   0.635
    *d       0.000   0.635

Using partial waves for B as LCAO basis

F-setup:
  name   : Fluorine
  id     : 96d5c0c6d5d6dd1db009b0a4cc47c564
  Z      : 9
  valence: 7
  core   : 2
  charge : 0.0
  file   : /usr/share/gpaw-setups/F.RPBE.gz
  cutoffs: 0.64(comp), 1.14(filt), 0.74(core), lmax=2
  valence states:
            energy   radius
    2s(2)  -29.979   0.635
    2p(5)  -11.057   0.635
    *s      -2.768   0.635
    *p      16.154   0.635
    *d       0.000   0.635

Using partial waves for F as LCAO basis

Using the RPBE Exchange-Correlation Functional.
Spin-Paired Calculation
Total Charge:      0.000000
Fermi Temperature: 0.100000
Mode: Finite-difference
Eigensolver:       rmm-diis
                   (3 nearest neighbors central finite-difference stencil)
Poisson Solver:    Jacobi 
                   (3 nearest neighbors central finite-difference stencil)
Interpolation:     6th Order
Reference Energy:  -9310573.103046

Total number of cores used: 8
Domain Decomposition: 2 x 1 x 4
Diagonalizer layout: Serial LAPACK
Orthonormalizer layout: Serial LAPACK

Symmetries present: 1
8 k-points in the Irreducible Part of the Brillouin Zone (total: 16)
Linear Mixing Parameter:           0.1
Pulay Mixing with 3 Old Densities
Damping of Long Wave Oscillations: 50

Convergence Criteria:
Total Energy Change per Atom:           0.001 eV / atom
Integral of Absolute Density Change:    0.0001 electrons
Integral of Absolute Eigenstate Change: 1e-09
Number of Bands in Calculation:         182
Bands to Converge:                      Occupied States Only
Number of Valence Electrons:            229
                     log10-error:    Total        Iterations:
           Time      WFS    Density  Energy       Fermi  Poisson
iter:   1  23:33:33  -0.9            -66.85372    6      265    
iter:   2  23:46:24  -1.9   -2.0     -71.11080    3      73     
iter:   3  23:59:13  -2.2   -2.0     -72.22096    3      65     
iter:   4  00:12:47  -2.3   -1.9     -69.71991    4      162    
iter:   5  00:26:00  -2.4   -2.3     -69.80985    3      129    
iter:   6  00:39:24  -3.1   -2.4     -69.99780    2      90     
iter:   7  00:52:21  -3.8   -2.5     -69.98700    3      68     
iter:   8  01:04:53  -3.9   -2.6     -69.95410    3      67     
iter:   9  01:17:43  -4.4   -2.9     -69.95796    3      61     
iter:  10  01:30:31  -4.9   -3.0     -69.96075    2      60     
iter:  11  01:43:13  -4.8   -3.0     -69.95898    2      63     
iter:  12  01:55:38  -5.1   -3.2     -69.95818    2      41     
iter:  13  02:07:57  -5.6   -3.6     -69.95687    2      6      
iter:  14  02:19:27  -5.8   -3.7     -69.95572    2      7      
iter:  15  02:31:28  -6.4   -3.9     -69.95715    2      4      
iter:  16  02:43:42  -6.5   -4.0     -69.95805    2      5      
iter:  17  02:55:28  -6.7   -4.2     -69.95708    2      6      
iter:  18  03:07:09  -7.4   -4.4     -69.95757    2      3      
iter:  19  03:19:14  -7.4   -4.4     -69.95831    2      3      
iter:  20  03:31:34  -7.7   -4.6     -69.95869    2      5      
iter:  21  03:44:08  -7.5   -4.5     -69.95819    2      5      
iter:  22  03:56:23  -8.1   -4.7     -69.95857    2      3      
iter:  23  04:08:24  -8.3   -4.7     -69.95859    2      2      
iter:  24  04:20:12  -8.7   -5.0     -69.95837    2      2      
iter:  25  04:32:24  -9.1   -5.1     -69.95796    2      1      
------------------------------------
Converged After 25 Iterations.

Energy Contributions Relative to Reference Atoms:(reference = -9310573.10305)
-------------------------
Kinetic:        -87.90998
Potential:      +60.47706
External:        +0.00000
XC:             -45.98320
Entropy (-ST):   -0.19514
Local:           +3.55573
-------------------------
Free Energy:    -70.05553
Zero Kelvin:    -69.95796

Fermi Level: -6.23766


Total Charge:  -0.000000 electrons
Dipole Moment: [-4.3708914  -5.12874475 -0.83603299]

Forces in eV/Ang:
  0 Au   -0.04395   -0.04510   -0.72977
  1 Au    0.00672    0.05008   -0.69925
  2 Au    0.03734   -0.01318   -0.68214
  3 Au    0.00165    0.06325   -0.70501
  4 Au    0.03737   -0.05316   -0.77398
  5 Au   -0.03912   -0.03190   -0.73562
  6 Au    0.03138   -0.03944    0.11138
  7 Au    0.01439    0.04053    0.13906
  8 Au   -0.04548    0.06588    0.10854
  9 Au    0.00907    0.02905    0.17972
 10 Au   -0.02380   -0.07657    0.18220
 11 Au    0.01441    0.03579    0.03352
 12 Au   -0.20540   -0.02153    0.52024
 13 Au   -0.04396   -0.19783   -0.21644
 14 Au    0.25023   -0.01976    0.57548
 15 Au   -0.26870    0.08677   -0.18740
 16 Au    0.33596    0.09312   -0.21987
 17 Au   -0.06315    0.00807    0.64406
 18 B    -0.01376    0.01624    0.72400
 19 F     0.67444    0.28331    0.29697
 20 F    -0.59517    0.29690    0.34049
 21 F     0.03474   -0.68568    0.25144
 22 F    -0.03553   -0.03313    0.84050

Positions:
  0 Au    1.4425    0.8328   12.0000
  1 Au    4.3275    0.8328   12.0000
  2 Au    7.2125    0.8328   12.0000
  3 Au    0.0000    3.3313   12.0000
  4 Au    2.8850    3.3313   12.0000
  5 Au    5.7700    3.3313   12.0000
  6 Au    0.0000    1.6657   14.3556
  7 Au    2.8850    1.6657   14.3556
  8 Au    5.7700    1.6657   14.3556
  9 Au    1.4425    4.1641   14.3556
 10 Au    4.3275    4.1641   14.3556
 11 Au    7.2125    4.1641   14.3556
 12 Au   -0.0082   -0.0010   16.7326
 13 Au    2.8830   -0.0088   16.7020
 14 Au    5.7801   -0.0010   16.7346
 15 Au    1.4310    2.5026   16.7033
 16 Au    4.3415    2.5027   16.7018
 17 Au    7.2101    2.4989   16.7375
 18 B     2.8847    1.6662   19.5386
 19 F     4.0583    2.3392   19.0160
 20 F     1.7127    2.3410   19.0169
 21 F     2.8857    0.3145   19.0147
 22 F     2.8836    1.6642   20.8799

    .--------------------.  
   /|                    |  
  / |                    |  
 *  |                    |  
 |  |                    |  
 |  |                    |  
 |  |                    |  
 |  |                    |  
 |  |                    |  
 |  |                    |  
 |  |                    |  
 |  |                    |  
 |  |    F               |  
 |  |  F B  F            |  
 |  |                    |  
 |  |   F  Au     Au     Au 
 |  | Au     Au     Au   |  
 |  |                    |  
 |  |  Au     Au     Au  |  
 |  |                    |  
 |Au|    Au     Au       |  
 | Au     Au     Au      |  
 |  |                    |  
 |  |Au     Au     Au    |  
 |  |                    |  
 |  |                    |  
 |  |                    |  
 |  |                    |  
 |  |                    |  
 |  |                    |  
 |  |                    |  
 |  |                    |  
 |  |                    |  
 |  |                    |  
 |  |                    |  
 |  .--------------------.  
 | /                    /   
 |/                    /    
 *--------------------*     

Unit Cell:
           Periodic     X           Y           Z      Points  Spacing
  --------------------------------------------------------------------
  1. axis:    yes    8.654987    0.000000    0.000000    56     0.1546
  2. axis:    yes    0.000000    4.996959    0.000000    32     0.1562
  3. axis:    no     0.000000    0.000000   28.711178   180     0.1595

Au-setup:
  name   : Gold
  id     : f729301af73151f9133db6f6e28f92a1
  Z      : 79
  valence: 11
  core   : 68
  charge : 0.0
  file   : /usr/share/gpaw-setups/Au.RPBE.gz
  cutoffs: 1.32(comp), 2.33(filt), 2.81(core), lmax=2
  valence states:
            energy   radius
    6s(1)   -5.611   1.323
    6p(0)   -0.793   1.323
    5d(10)  -6.824   1.323
    *s      21.600   1.323
    *p      26.419   1.323
    *d      20.388   1.323

Using partial waves for Au as LCAO basis

B-setup:
  name   : Boron
  id     : 4c085ebb9e6144015c26e053032a3a9b
  Z      : 5
  valence: 3
  core   : 2
  charge : 0.0
  file   : /usr/share/gpaw-setups/B.RPBE.gz
  cutoffs: 0.64(comp), 1.14(filt), 1.38(core), lmax=2
  valence states:
            energy   radius
    2s(2)   -9.489   0.635
    2p(1)   -3.587   0.635
    *s      17.723   0.635
    *p      23.625   0.635
    *d       0.000   0.635

Using partial waves for B as LCAO basis

F-setup:
  name   : Fluorine
  id     : 96d5c0c6d5d6dd1db009b0a4cc47c564
  Z      : 9
  valence: 7
  core   : 2
  charge : 0.0
  file   : /usr/share/gpaw-setups/F.RPBE.gz
  cutoffs: 0.64(comp), 1.14(filt), 0.74(core), lmax=2
  valence states:
            energy   radius
    2s(2)  -29.979   0.635
    2p(5)  -11.057   0.635
    *s      -2.768   0.635
    *p      16.154   0.635
    *d       0.000   0.635

Using partial waves for F as LCAO basis

Using the RPBE Exchange-Correlation Functional.
Spin-Paired Calculation
Total Charge:      0.000000
Fermi Temperature: 0.100000
Mode: Finite-difference
Eigensolver:       rmm-diis
                   (3 nearest neighbors central finite-difference stencil)
Poisson Solver:    Jacobi 
                   (3 nearest neighbors central finite-difference stencil)
Interpolation:     6th Order
Reference Energy:  -9310573.103046

Total number of cores used: 8
Domain Decomposition: 2 x 1 x 4
Diagonalizer layout: Serial LAPACK
Orthonormalizer layout: Serial LAPACK

Symmetries present: 1
8 k-points in the Irreducible Part of the Brillouin Zone (total: 16)
Linear Mixing Parameter:           0.1
Pulay Mixing with 3 Old Densities
Damping of Long Wave Oscillations: 50

Convergence Criteria:
Total Energy Change per Atom:           0.001 eV / atom
Integral of Absolute Density Change:    0.0001 electrons
Integral of Absolute Eigenstate Change: 1e-09
Number of Bands in Calculation:         182
Bands to Converge:                      Occupied States Only
Number of Valence Electrons:            229
                     log10-error:    Total        Iterations:
           Time      WFS    Density  Energy       Fermi  Poisson
iter:   1  04:52:27  -0.9            -66.95796    10     395    
iter:   2  05:06:39  -1.9   -1.8     -71.23848    4      192    
iter:   3  05:19:00  -2.3   -1.9     -71.74183    3      40     
iter:   4  05:34:41  -2.7   -1.9     -70.24445    7      304    
iter:   5  05:49:58  -2.4   -2.2     -69.87164    6      294    
iter:   6  06:03:02  -3.0   -2.4     -70.07169    2      103    
iter:   7  06:16:03  -3.5   -2.4     -70.07695    3      100    
iter:   8  06:29:09  -4.0   -2.5     -70.06034    3      82     
iter:   9  06:41:50  -4.1   -2.6     -70.04564    3      71     
iter:  10  06:54:14  -4.5   -2.9     -70.04403    3      18     
iter:  11  07:06:50  -4.9   -3.0     -70.04589    3      48     
iter:  12  07:19:28  -5.2   -3.1     -70.04661    3      53     
iter:  13  07:31:27  -5.5   -3.3     -70.04644    2      27     
iter:  14  07:43:20  -5.9   -3.5     -70.04571    2      7      
iter:  15  07:55:19  -5.8   -3.6     -70.04522    2      13     
iter:  16  08:07:09  -6.1   -3.9     -70.04490    2      6      
iter:  17  08:19:16  -6.5   -4.1     -70.04569    2      5      
iter:  18  08:31:13  -7.0   -4.2     -70.04611    2      3      
iter:  19  08:43:18  -7.0   -4.3     -70.04642    2      4      
iter:  20  08:55:24  -7.9   -4.4     -70.04646    2      2      
iter:  21  09:07:31  -7.1   -4.5     -70.04619    2      4      
iter:  22  09:19:11  -8.1   -4.6     -70.04637    2      3      
iter:  23  09:30:49  -7.5   -4.7     -70.04670    2      3      
iter:  24  09:42:58  -8.6   -5.1     -70.04656    2      2      
iter:  25  09:54:49  -8.5   -5.1     -70.04641    2      2      
iter:  26  10:06:27  -9.5   -5.3     -70.04641    2      1      
------------------------------------
Converged After 26 Iterations.

Energy Contributions Relative to Reference Atoms:(reference = -9310573.10305)
-------------------------
Kinetic:        -93.27048
Potential:      +64.68887
External:        +0.00000
XC:             -44.92744
Entropy (-ST):   -0.19410
Local:           +3.55968
-------------------------
Free Energy:    -70.14346
Zero Kelvin:    -70.04641

Fermi Level: -6.20386


Total Charge:  -0.000000 electrons
Dipole Moment: [-4.14610875 -5.32167796 -0.80932159]

Forces in eV/Ang:
  0 Au   -0.04376   -0.04589   -0.73219
  1 Au    0.00622    0.04927   -0.70121
  2 Au    0.03758   -0.01189   -0.67892
  3 Au    0.00292    0.06413   -0.70473
  4 Au    0.03763   -0.05393   -0.77877
  5 Au   -0.04059   -0.03101   -0.73590
  6 Au    0.00232   -0.05181    0.14411
  7 Au    0.01450    0.03988    0.14503
  8 Au   -0.01631    0.04924    0.13697
  9 Au   -0.01932    0.04444    0.18107
 10 Au    0.00524   -0.05773    0.18703
 11 Au    0.01377    0.03170    0.08487
 12 Au   -0.18807   -0.00698    0.46226
 13 Au   -0.02276   -0.12113   -0.12812
 14 Au    0.19891   -0.00164    0.50594
 15 Au   -0.19945    0.03856   -0.11300
 16 Au    0.27006    0.05195   -0.12685
 17 Au   -0.06339    0.00107    0.56688
 18 B     0.01576    0.00327   -0.03049
 19 F    -0.00382   -0.01963    0.57239
 20 F     0.06689   -0.04205    0.50928
 21 F    -0.00533    0.05251    0.52955
 22 F     0.01382    0.00894    0.77935

Positions:
  0 Au    1.4425    0.8328   12.0000
  1 Au    4.3275    0.8328   12.0000
  2 Au    7.2125    0.8328   12.0000
  3 Au    0.0000    3.3313   12.0000
  4 Au    2.8850    3.3313   12.0000
  5 Au    5.7700    3.3313   12.0000
  6 Au    0.0000    1.6657   14.3556
  7 Au    2.8850    1.6657   14.3556
  8 Au    5.7700    1.6657   14.3556
  9 Au    1.4425    4.1641   14.3556
 10 Au    4.3275    4.1641   14.3556
 11 Au    7.2125    4.1641   14.3556
 12 Au   -0.0164   -0.0016   16.7534
 13 Au    2.8816   -0.0156   16.6949
 14 Au    5.7895   -0.0014   16.7574
 15 Au    1.4211    2.5052   16.6971
 16 Au    4.3543    2.5058   16.6946
 17 Au    7.2074    2.4991   16.7630
 18 B     2.8849    1.6665   19.5618
 19 F     4.0746    2.3464   19.0332
 20 F     1.6987    2.3483   19.0329
 21 F     2.8859    0.2985   19.0302
 22 F     2.8834    1.6639   20.9099

    .--------------------.  
   /|                    |  
  / |                    |  
 *  |                    |  
 |  |                    |  
 |  |                    |  
 |  |                    |  
 |  |                    |  
 |  |                    |  
 |  |                    |  
 |  |                    |  
 |  |                    |  
 |  |    F               |  
 |  |  F B  F            |  
 |  |                    |  
 |  |   F  Au     Au     Au 
 |  | Au     Au     Au   |  
 |  |                    |  
 |  |  Au     Au     Au  |  
 |  |                    |  
 |Au|    Au     Au       |  
 | Au     Au     Au      |  
 |  |                    |  
 |  |Au     Au     Au    |  
 |  |                    |  
 |  |                    |  
 |  |                    |  
 |  |                    |  
 |  |                    |  
 |  |                    |  
 |  |                    |  
 |  |                    |  
 |  |                    |  
 |  |                    |  
 |  |                    |  
 |  .--------------------.  
 | /                    /   
 |/                    /    
 *--------------------*     

Unit Cell:
           Periodic     X           Y           Z      Points  Spacing
  --------------------------------------------------------------------
  1. axis:    yes    8.654987    0.000000    0.000000    56     0.1546
  2. axis:    yes    0.000000    4.996959    0.000000    32     0.1562
  3. axis:    no     0.000000    0.000000   28.711178   180     0.1595

Au-setup:
  name   : Gold
  id     : f729301af73151f9133db6f6e28f92a1
  Z      : 79
  valence: 11
  core   : 68
  charge : 0.0
  file   : /usr/share/gpaw-setups/Au.RPBE.gz
  cutoffs: 1.32(comp), 2.33(filt), 2.81(core), lmax=2
  valence states:
            energy   radius
    6s(1)   -5.611   1.323
    6p(0)   -0.793   1.323
    5d(10)  -6.824   1.323
    *s      21.600   1.323
    *p      26.419   1.323
    *d      20.388   1.323

Using partial waves for Au as LCAO basis

B-setup:
  name   : Boron
  id     : 4c085ebb9e6144015c26e053032a3a9b
  Z      : 5
  valence: 3
  core   : 2
  charge : 0.0
  file   : /usr/share/gpaw-setups/B.RPBE.gz
  cutoffs: 0.64(comp), 1.14(filt), 1.38(core), lmax=2
  valence states:
            energy   radius
    2s(2)   -9.489   0.635
    2p(1)   -3.587   0.635
    *s      17.723   0.635
    *p      23.625   0.635
    *d       0.000   0.635

Using partial waves for B as LCAO basis

F-setup:
  name   : Fluorine
  id     : 96d5c0c6d5d6dd1db009b0a4cc47c564
  Z      : 9
  valence: 7
  core   : 2
  charge : 0.0
  file   : /usr/share/gpaw-setups/F.RPBE.gz
  cutoffs: 0.64(comp), 1.14(filt), 0.74(core), lmax=2
  valence states:
            energy   radius
    2s(2)  -29.979   0.635
    2p(5)  -11.057   0.635
    *s      -2.768   0.635
    *p      16.154   0.635
    *d       0.000   0.635

Using partial waves for F as LCAO basis

Using the RPBE Exchange-Correlation Functional.
Spin-Paired Calculation
Total Charge:      0.000000
Fermi Temperature: 0.100000
Mode: Finite-difference
Eigensolver:       rmm-diis
                   (3 nearest neighbors central finite-difference stencil)
Poisson Solver:    Jacobi 
                   (3 nearest neighbors central finite-difference stencil)
Interpolation:     6th Order
Reference Energy:  -9310573.103046

Total number of cores used: 8
Domain Decomposition: 2 x 1 x 4
Diagonalizer layout: Serial LAPACK
Orthonormalizer layout: Serial LAPACK

Symmetries present: 1
8 k-points in the Irreducible Part of the Brillouin Zone (total: 16)
Linear Mixing Parameter:           0.1
Pulay Mixing with 3 Old Densities
Damping of Long Wave Oscillations: 50

Convergence Criteria:
Total Energy Change per Atom:           0.001 eV / atom
Integral of Absolute Density Change:    0.0001 electrons
Integral of Absolute Eigenstate Change: 1e-09
Number of Bands in Calculation:         182
Bands to Converge:                      Occupied States Only
Number of Valence Electrons:            229
                     log10-error:    Total        Iterations:
           Time      WFS    Density  Energy       Fermi  Poisson
iter:   1  10:26:48  -0.8            -65.74855    17     461    
iter:   2  10:42:01  -1.7   -1.7     -71.65456    6      280    
iter:   3  10:55:17  -2.1   -1.8     -71.90950    3      103    
iter:   4  11:08:18  -3.1   -1.8     -71.86597    3      96     
iter:   5  11:24:13  -2.4   -1.8     -70.80603    7      334    
iter:   6  11:40:48  -1.8   -1.9     -70.29348    12     415    
iter:   7  11:55:01  -2.5   -2.0     -70.26391    5      255    
iter:   8  12:07:57  -3.3   -2.2     -70.22431    4      131    
iter:   9  12:22:12  -2.9   -2.3     -70.09958    4      209    
iter:  10  12:34:55  -3.7   -2.5     -70.12277    2      86     
iter:  11  12:47:42  -4.2   -2.6     -70.14427    3      91     
iter:  12  13:01:36  -4.0   -2.5     -70.12954    4      154    
iter:  13  13:14:24  -4.6   -2.8     -70.12435    3      72     
iter:  14  13:27:13  -4.5   -2.8     -70.11876    3      62     
iter:  15  13:39:39  -4.3   -3.0     -70.11311    3      71     
iter:  16  13:51:25  -4.9   -3.3     -70.11686    2      5      
iter:  17  14:03:46  -5.0   -3.3     -70.11855    2      6      
iter:  18  14:16:06  -5.6   -3.3     -70.11786    2      20     
iter:  19  14:28:24  -5.8   -3.3     -70.11685    3      43     
iter:  20  14:40:27  -5.3   -3.3     -70.11713    2      42     
iter:  21  14:52:39  -6.1   -3.6     -70.11571    2      6      
iter:  22  15:04:48  -6.1   -3.8     -70.11618    2      17     
iter:  23  15:17:00  -6.8   -3.9     -70.11666    2      4      
iter:  24  15:28:58  -7.0   -4.0     -70.11826    2      4      
iter:  25  15:41:04  -6.7   -4.2     -70.11987    2      5      
iter:  26  15:53:09  -7.3   -4.5     -70.11924    2      2      
iter:  27  16:05:11  -7.6   -4.5     -70.11924    2      2      
iter:  28  16:16:56  -7.5   -4.4     -70.11737    2      3      
iter:  29  16:29:02  -8.1   -4.7     -70.11678    2      2      
iter:  30  16:40:49  -7.7   -4.8     -70.11764    2      3      
iter:  31  16:53:01  -8.5   -4.9     -70.11733    2      2      
iter:  32  17:04:58  -8.7   -5.1     -70.11732    2      2      
iter:  33  17:17:10  -9.5   -5.2     -70.11755    2      1      
------------------------------------
Converged After 33 Iterations.

Energy Contributions Relative to Reference Atoms:(reference = -9310573.10305)
-------------------------
Kinetic:        -99.04717
Potential:      +69.32262
External:        +0.00000
XC:             -43.85769
Entropy (-ST):   -0.19205
Local:           +3.56071
-------------------------
Free Energy:    -70.21358
Zero Kelvin:    -70.11755

Fermi Level: -6.23533


Total Charge:  -0.000000 electrons
Dipole Moment: [-3.77629673 -5.38413311 -0.82906089]

Forces in eV/Ang:
  0 Au   -0.04324   -0.04677   -0.73387
  1 Au    0.00535    0.04846   -0.70218
  2 Au    0.03783   -0.01030   -0.67618
  3 Au    0.00496    0.06503   -0.70461
  4 Au    0.03795   -0.05495   -0.78203
  5 Au   -0.04285   -0.03001   -0.73625
  6 Au   -0.03748   -0.06957    0.19118
  7 Au    0.01488    0.04003    0.15345
  8 Au    0.02430    0.02555    0.17653
  9 Au   -0.05836    0.06544    0.18511
 10 Au    0.04433   -0.03200    0.19407
 11 Au    0.01293    0.02681    0.16188
 12 Au   -0.16414    0.00897    0.44417
 13 Au    0.00502   -0.02811    0.01361
 14 Au    0.09736    0.01893    0.40687
 15 Au   -0.11930   -0.01126    0.01042
 16 Au    0.16154   -0.00849    0.03317
 17 Au   -0.02256   -0.00616    0.47427
 18 B     0.02520   -0.01149   -0.12657
 19 F    -0.43537   -0.30121    0.58308
 20 F     0.41218   -0.23705    0.65465
 21 F     0.00708    0.60456    0.55337
 22 F     0.01704    0.01427    0.30497

Positions:
  0 Au    1.4425    0.8328   12.0000
  1 Au    4.3275    0.8328   12.0000
  2 Au    7.2125    0.8328   12.0000
  3 Au    0.0000    3.3313   12.0000
  4 Au    2.8850    3.3313   12.0000
  5 Au    5.7700    3.3313   12.0000
  6 Au    0.0000    1.6657   14.3556
  7 Au    2.8850    1.6657   14.3556
  8 Au    5.7700    1.6657   14.3556
  9 Au    1.4425    4.1641   14.3556
 10 Au    4.3275    4.1641   14.3556
 11 Au    7.2125    4.1641   14.3556
 12 Au   -0.0290   -0.0021   16.7860
 13 Au    2.8802   -0.0236   16.6876
 14 Au    5.8016   -0.0015   16.7910
 15 Au    1.4076    2.5079   16.6908
 16 Au    4.3716    2.5089   16.6878
 17 Au    7.2043    2.4991   16.8011
 18 B     2.8857    1.6666   19.5922
 19 F     4.0861    2.3490   19.0622
 20 F     1.6886    2.3532   19.0634
 21 F     2.8865    0.2910   19.0568
 22 F     2.8832    1.6636   20.9454

    .--------------------.  
   /|                    |  
  / |                    |  
 *  |                    |  
 |  |                    |  
 |  |                    |  
 |  |                    |  
 |  |                    |  
 |  |                    |  
 |  |                    |  
 |  |                    |  
 |  |    F               |  
 |  |                    |  
 |  |  F B  F            |  
 |  |                    |  
 |  |   F  Au     Au     Au 
 |  | Au     Au     Au   |  
 |  |                    |  
 |  |  Au     Au     Au  |  
 |  |                    |  
 |Au|    Au     Au       |  
 | Au     Au     Au      |  
 |  |                    |  
 |  |Au     Au     Au    |  
 |  |                    |  
 |  |                    |  
 |  |                    |  
 |  |                    |  
 |  |                    |  
 |  |                    |  
 |  |                    |  
 |  |                    |  
 |  |                    |  
 |  |                    |  
 |  |                    |  
 |  .--------------------.  
 | /                    /   
 |/                    /    
 *--------------------*     

Unit Cell:
           Periodic     X           Y           Z      Points  Spacing
  --------------------------------------------------------------------
  1. axis:    yes    8.654987    0.000000    0.000000    56     0.1546
  2. axis:    yes    0.000000    4.996959    0.000000    32     0.1562
  3. axis:    no     0.000000    0.000000   28.711178   180     0.1595

Au-setup:
  name   : Gold
  id     : f729301af73151f9133db6f6e28f92a1
  Z      : 79
  valence: 11
  core   : 68
  charge : 0.0
  file   : /usr/share/gpaw-setups/Au.RPBE.gz
  cutoffs: 1.32(comp), 2.33(filt), 2.81(core), lmax=2
  valence states:
            energy   radius
    6s(1)   -5.611   1.323
    6p(0)   -0.793   1.323
    5d(10)  -6.824   1.323
    *s      21.600   1.323
    *p      26.419   1.323
    *d      20.388   1.323

Using partial waves for Au as LCAO basis

B-setup:
  name   : Boron
  id     : 4c085ebb9e6144015c26e053032a3a9b
  Z      : 5
  valence: 3
  core   : 2
  charge : 0.0
  file   : /usr/share/gpaw-setups/B.RPBE.gz
  cutoffs: 0.64(comp), 1.14(filt), 1.38(core), lmax=2
  valence states:
            energy   radius
    2s(2)   -9.489   0.635
    2p(1)   -3.587   0.635
    *s      17.723   0.635
    *p      23.625   0.635
    *d       0.000   0.635

Using partial waves for B as LCAO basis

F-setup:
  name   : Fluorine
  id     : 96d5c0c6d5d6dd1db009b0a4cc47c564
  Z      : 9
  valence: 7
  core   : 2
  charge : 0.0
  file   : /usr/share/gpaw-setups/F.RPBE.gz
  cutoffs: 0.64(comp), 1.14(filt), 0.74(core), lmax=2
  valence states:
            energy   radius
    2s(2)  -29.979   0.635
    2p(5)  -11.057   0.635
    *s      -2.768   0.635
    *p      16.154   0.635
    *d       0.000   0.635

Using partial waves for F as LCAO basis

Using the RPBE Exchange-Correlation Functional.
Spin-Paired Calculation
Total Charge:      0.000000
Fermi Temperature: 0.100000
Mode: Finite-difference
Eigensolver:       rmm-diis
                   (3 nearest neighbors central finite-difference stencil)
Poisson Solver:    Jacobi 
                   (3 nearest neighbors central finite-difference stencil)
Interpolation:     6th Order
Reference Energy:  -9310573.103046

Total number of cores used: 8
Domain Decomposition: 2 x 1 x 4
Diagonalizer layout: Serial LAPACK
Orthonormalizer layout: Serial LAPACK

Symmetries present: 1
8 k-points in the Irreducible Part of the Brillouin Zone (total: 16)
Linear Mixing Parameter:           0.1
Pulay Mixing with 3 Old Densities
Damping of Long Wave Oscillations: 50

Convergence Criteria:
Total Energy Change per Atom:           0.001 eV / atom
Integral of Absolute Density Change:    0.0001 electrons
Integral of Absolute Eigenstate Change: 1e-09
Number of Bands in Calculation:         182
Bands to Converge:                      Occupied States Only
Number of Valence Electrons:            229
                     log10-error:    Total        Iterations:
           Time      WFS    Density  Energy       Fermi  Poisson
iter:   1  17:38:07  -0.6            -63.01393    25     513    
iter:   2  17:54:12  -1.5   -1.6     -72.61984    9      347    
iter:   3  18:09:14  -2.0   -1.7     -72.38665    5      273    
iter:   4  18:25:47  -2.1   -1.8     -70.90787    14     436    
iter:   5  18:41:51  -2.2   -1.8     -70.38823    8      354    
iter:   6  18:55:15  -2.9   -2.0     -70.28961    4      132    
iter:   7  19:08:33  -3.4   -2.2     -70.26406    4      128    
iter:   8  19:23:23  -3.1   -2.3     -70.16003    6      259    
iter:   9  19:35:55  -4.0   -2.7     -70.19487    3      43     
iter:  10  19:48:58  -4.0   -2.8     -70.19711    3      125    
iter:  11  20:01:23  -4.7   -2.9     -70.19992    3      60     
iter:  12  20:13:40  -5.1   -2.9     -70.19348    3      38     
iter:  13  20:26:25  -4.9   -3.0     -70.19083    3      71     
iter:  14  20:38:50  -5.4   -3.3     -70.19107    2      33     
iter:  15  20:50:42  -5.9   -3.5     -70.19299    2      6      
iter:  16  21:02:46  -6.0   -3.6     -70.19413    2      9      
iter:  17  21:15:01  -6.5   -3.9     -70.19147    2      8      
iter:  18  21:26:59  -6.9   -4.1     -70.18995    2      4      
iter:  19  21:38:45  -7.0   -4.2     -70.18995    2      13     
iter:  20  21:50:34  -7.6   -4.3     -70.19036    2      3      
iter:  21  22:02:47  -7.4   -4.4     -70.19104    2      10     
iter:  22  22:14:29  -8.1   -4.3     -70.19093    2      3      
iter:  23  22:26:35  -7.3   -4.4     -70.19118    2      16     
iter:  24  22:38:37  -8.0   -4.1     -70.19129    2      2      
iter:  25  22:50:43  -8.0   -4.1     -70.19138    2      5      
iter:  26  23:02:24  -8.2   -4.3     -70.19148    2      6      
iter:  27  23:14:02  -8.4   -4.7     -70.19157    2      2      
iter:  28  23:25:48  -8.8   -4.7     -70.19170    2      2      
iter:  29  23:37:40  -7.3   -4.7     -70.19179    2      17     
iter:  30  23:49:39  -7.9   -4.1     -70.19164    2      5      
iter:  31  00:01:55  -9.0   -4.3     -70.19157    2      1      
iter:  32  00:13:57  -7.0   -4.3     -70.19174    2      24     
iter:  33  00:26:02  -7.7   -3.9     -70.19178    2      5      
iter:  34  00:38:29  -7.7   -4.0     -70.19182    2      11     
iter:  35  00:50:38  -8.5   -4.8     -70.19180    2      1      
iter:  36  01:02:42  -9.1   -4.9     -70.19174    2      1      
------------------------------------
Converged After 36 Iterations.

Energy Contributions Relative to Reference Atoms:(reference = -9310573.10305)
-------------------------
Kinetic:       -104.79238
Potential:      +74.03897
External:        +0.00000
XC:             -42.89217
Entropy (-ST):   -0.18826
Local:           +3.54797
-------------------------
Free Energy:    -70.28587
Zero Kelvin:    -70.19174

Fermi Level: -6.31315


Total Charge:  -0.000000 electrons
Dipole Moment: [-3.20098754 -5.2709722  -0.87583025]

Forces in eV/Ang:
  0 Au   -0.04247   -0.04784   -0.73910
  1 Au    0.00418    0.04753   -0.70659
  2 Au    0.03806   -0.00831   -0.67478
  3 Au    0.00776    0.06631   -0.70676
  4 Au    0.03833   -0.05660   -0.78937
  5 Au   -0.04586   -0.02875   -0.73881
  6 Au   -0.08874   -0.09426    0.25564
  7 Au    0.01579    0.04137    0.17458
  8 Au    0.07731   -0.00306    0.23098
  9 Au   -0.10924    0.09196    0.20160
 10 Au    0.09264   -0.00275    0.21098
 11 Au    0.01318    0.02319    0.26999
 12 Au   -0.07860    0.02643    0.34032
 13 Au    0.03213    0.07124    0.19228
 14 Au   -0.03626    0.03473    0.27423
 15 Au   -0.03589   -0.05588    0.17983
 16 Au    0.00361   -0.08064    0.23018
 17 Au    0.06159   -0.01061    0.34129
 18 B     0.01613    0.00137   -0.14535
 19 F    -0.74030   -0.43212    0.51689
 20 F     0.67206   -0.41245    0.48924
 21 F     0.02158    0.80922    0.47975
 22 F    -0.01775   -0.02260    0.11458

Positions:
  0 Au    1.4425    0.8328   12.0000
  1 Au    4.3275    0.8328   12.0000
  2 Au    7.2125    0.8328   12.0000
  3 Au    0.0000    3.3313   12.0000
  4 Au    2.8850    3.3313   12.0000
  5 Au    5.7700    3.3313   12.0000
  6 Au    0.0000    1.6657   14.3556
  7 Au    2.8850    1.6657   14.3556
  8 Au    5.7700    1.6657   14.3556
  9 Au    1.4425    4.1641   14.3556
 10 Au    4.3275    4.1641   14.3556
 11 Au    7.2125    4.1641   14.3556
 12 Au   -0.0412   -0.0021   16.8207
 13 Au    2.8794   -0.0297   16.6844
 14 Au    5.8117   -0.0010   16.8257
 15 Au    1.3948    2.5096   16.6884
 16 Au    4.3870    2.5104   16.6857
 17 Au    7.2028    2.4991   16.8411
 18 B     2.8864    1.6668   19.6215
 19 F     4.0867    2.3458   19.0954
 20 F     1.6881    2.3519   19.0966
 21 F     2.8875    0.2938   19.0873
 22 F     2.8825    1.6626   20.9797

    .--------------------.  
   /|                    |  
  / |                    |  
 *  |                    |  
 |  |                    |  
 |  |                    |  
 |  |                    |  
 |  |                    |  
 |  |                    |  
 |  |                    |  
 |  |                    |  
 |  |    F               |  
 |  |                    |  
 |  |  F B  F            |  
 |  |             Au     Au 
 |  |   F  Au            |  
 |  | Au     Au     Au   |  
 |  |                    |  
 |  |  Au     Au     Au  |  
 |  |                    |  
 |Au|    Au     Au       |  
 | Au     Au     Au      |  
 |  |                    |  
 |  |Au     Au     Au    |  
 |  |                    |  
 |  |                    |  
 |  |                    |  
 |  |                    |  
 |  |                    |  
 |  |                    |  
 |  |                    |  
 |  |                    |  
 |  |                    |  
 |  |                    |  
 |  |                    |  
 |  .--------------------.  
 | /                    /   
 |/                    /    
 *--------------------*     

Unit Cell:
           Periodic     X           Y           Z      Points  Spacing
  --------------------------------------------------------------------
  1. axis:    yes    8.654987    0.000000    0.000000    56     0.1546
  2. axis:    yes    0.000000    4.996959    0.000000    32     0.1562
  3. axis:    no     0.000000    0.000000   28.711178   180     0.1595

Au-setup:
  name   : Gold
  id     : f729301af73151f9133db6f6e28f92a1
  Z      : 79
  valence: 11
  core   : 68
  charge : 0.0
  file   : /usr/share/gpaw-setups/Au.RPBE.gz
  cutoffs: 1.32(comp), 2.33(filt), 2.81(core), lmax=2
  valence states:
            energy   radius
    6s(1)   -5.611   1.323
    6p(0)   -0.793   1.323
    5d(10)  -6.824   1.323
    *s      21.600   1.323
    *p      26.419   1.323
    *d      20.388   1.323

Using partial waves for Au as LCAO basis

B-setup:
  name   : Boron
  id     : 4c085ebb9e6144015c26e053032a3a9b
  Z      : 5
  valence: 3
  core   : 2
  charge : 0.0
  file   : /usr/share/gpaw-setups/B.RPBE.gz
  cutoffs: 0.64(comp), 1.14(filt), 1.38(core), lmax=2
  valence states:
            energy   radius
    2s(2)   -9.489   0.635
    2p(1)   -3.587   0.635
    *s      17.723   0.635
    *p      23.625   0.635
    *d       0.000   0.635

Using partial waves for B as LCAO basis

F-setup:
  name   : Fluorine
  id     : 96d5c0c6d5d6dd1db009b0a4cc47c564
  Z      : 9
  valence: 7
  core   : 2
  charge : 0.0
  file   : /usr/share/gpaw-setups/F.RPBE.gz
  cutoffs: 0.64(comp), 1.14(filt), 0.74(core), lmax=2
  valence states:
            energy   radius
    2s(2)  -29.979   0.635
    2p(5)  -11.057   0.635
    *s      -2.768   0.635
    *p      16.154   0.635
    *d       0.000   0.635

Using partial waves for F as LCAO basis

Using the RPBE Exchange-Correlation Functional.
Spin-Paired Calculation
Total Charge:      0.000000
Fermi Temperature: 0.100000
Mode: Finite-difference
Eigensolver:       rmm-diis
                   (3 nearest neighbors central finite-difference stencil)
Poisson Solver:    Jacobi 
                   (3 nearest neighbors central finite-difference stencil)
Interpolation:     6th Order
Reference Energy:  -9310573.103046

Total number of cores used: 8
Domain Decomposition: 2 x 1 x 4
Diagonalizer layout: Serial LAPACK
Orthonormalizer layout: Serial LAPACK

Symmetries present: 1
8 k-points in the Irreducible Part of the Brillouin Zone (total: 16)
Linear Mixing Parameter:           0.1
Pulay Mixing with 3 Old Densities
Damping of Long Wave Oscillations: 50

Convergence Criteria:
Total Energy Change per Atom:           0.001 eV / atom
Integral of Absolute Density Change:    0.0001 electrons
Integral of Absolute Eigenstate Change: 1e-09
Number of Bands in Calculation:         182
Bands to Converge:                      Occupied States Only
Number of Valence Electrons:            229
                     log10-error:    Total        Iterations:
           Time      WFS    Density  Energy       Fermi  Poisson
iter:   1  01:24:15  -0.5            -62.88556    27     524    
iter:   2  01:40:01  -1.5   -1.6     -72.73601    10     365    
iter:   3  01:55:22  -2.0   -1.7     -72.30360    6      307    
iter:   4  02:11:58  -2.2   -1.8     -71.76929    15     441    
iter:   5  02:28:10  -2.2   -1.8     -70.32551    8      366    
iter:   6  02:41:22  -2.9   -2.0     -70.37706    4      131    
iter:   7  02:55:00  -3.3   -2.2     -70.32806    4      146    
iter:   8  03:09:20  -3.4   -2.3     -70.25118    4      199    
iter:   9  03:22:22  -3.9   -2.7     -70.26269    3      98     
iter:  10  03:34:52  -4.5   -2.8     -70.26544    2      64     
iter:  11  03:47:07  -4.8   -2.9     -70.26272    2      36     
iter:  12  03:59:17  -4.5   -3.0     -70.25915    3      42     
iter:  13  04:11:25  -5.1   -3.3     -70.25753    3      18     
iter:  14  04:23:31  -5.4   -3.4     -70.25832    3      27     
iter:  15  04:36:01  -5.5   -3.5     -70.25884    3      29     
iter:  16  04:47:53  -6.1   -3.7     -70.26133    2      9      
iter:  17  04:59:57  -6.8   -4.0     -70.26053    2      4      
iter:  18  05:12:03  -7.0   -4.1     -70.25943    2      3      
iter:  19  05:24:04  -7.1   -4.2     -70.25903    2      5      
iter:  20  05:36:11  -7.6   -4.4     -70.26094    2      3      
iter:  21  05:48:11  -7.7   -4.6     -70.26161    2      6      
iter:  22  06:00:04  -7.7   -4.6     -70.25985    2      4      
iter:  23  06:11:58  -8.5   -4.7     -70.26054    2      2      
iter:  24  06:23:55  -8.1   -4.8     -70.26151    2      3      
iter:  25  06:35:46  -8.9   -4.9     -70.26128    2      1      
iter:  26  06:47:53  -8.0   -4.9     -70.25979    2      3      
iter:  27  07:00:08  -8.9   -5.0     -70.26011    2      2      
iter:  28  07:11:36  -8.3   -5.0     -70.26123    2      2      
iter:  29  07:23:42  -9.3   -5.4     -70.26107    2      1      
------------------------------------
Converged After 29 Iterations.

Energy Contributions Relative to Reference Atoms:(reference = -9310573.10305)
-------------------------
Kinetic:       -108.95534
Potential:      +77.53900
External:        +0.00000
XC:             -42.29524
Entropy (-ST):   -0.18364
Local:           +3.54233
-------------------------
Free Energy:    -70.35289
Zero Kelvin:    -70.26107

Fermi Level: -6.41934


Total Charge:  -0.000000 electrons
Dipole Moment: [-2.62787185 -5.05713732 -0.93335465]

Forces in eV/Ang:
  0 Au   -0.04146   -0.04867   -0.74123
  1 Au    0.00305    0.04685   -0.70846
  2 Au    0.03804   -0.00639   -0.67231
  3 Au    0.01059    0.06739   -0.70701
  4 Au    0.03843   -0.05834   -0.79248
  5 Au   -0.04863   -0.02766   -0.73896
  6 Au   -0.13124   -0.11592    0.31941
  7 Au    0.01677    0.04396    0.20898
  8 Au    0.12173   -0.02498    0.28945
  9 Au   -0.14998    0.11250    0.23215
 10 Au    0.13064    0.01730    0.24090
 11 Au    0.01347    0.02239    0.37761
 12 Au    0.05881    0.03901    0.22900
 13 Au    0.04506    0.13677    0.33027
 14 Au   -0.12057    0.03793    0.21666
 15 Au    0.02972   -0.08291    0.31161
 16 Au   -0.13561   -0.12777    0.37477
 17 Au    0.09982   -0.00947    0.30225
 18 B     0.00213    0.00115    0.00140
 19 F    -0.64571   -0.36950    0.35763
 20 F     0.59176   -0.32306    0.30905
 21 F    -0.00975    0.75823    0.34069
 22 F     0.03441    0.00547   -0.04857

Positions:
  0 Au    1.4425    0.8328   12.0000
  1 Au    4.3275    0.8328   12.0000
  2 Au    7.2125    0.8328   12.0000
  3 Au    0.0000    3.3313   12.0000
  4 Au    2.8850    3.3313   12.0000
  5 Au    5.7700    3.3313   12.0000
  6 Au    0.0000    1.6657   14.3556
  7 Au    2.8850    1.6657   14.3556
  8 Au    5.7700    1.6657   14.3556
  9 Au    1.4425    4.1641   14.3556
 10 Au    4.3275    4.1641   14.3556
 11 Au    7.2125    4.1641   14.3556
 12 Au   -0.0508   -0.0016   16.8543
 13 Au    2.8792   -0.0335   16.6859
 14 Au    5.8192   -0.0003   16.8598
 15 Au    1.3838    2.5101   16.6903
 16 Au    4.3988    2.5101   16.6886
 17 Au    7.2027    2.4989   16.8811
 18 B     2.8870    1.6671   19.6502
 19 F     4.0826    2.3402   19.1284
 20 F     1.6921    2.3488   19.1288
 21 F     2.8879    0.3028   19.1176
 22 F     2.8827    1.6620   21.0101

    .--------------------.  
   /|                    |  
  / |                    |  
 *  |                    |  
 |  |                    |  
 |  |                    |  
 |  |                    |  
 |  |                    |  
 |  |                    |  
 |  |                    |  
 |  |                    |  
 |  |    F               |  
 |  |                    |  
 |  |  F B  F            |  
 |  |             Au     Au 
 |  |   F  Au            |  
 |  | Au     Au     Au   |  
 |  |                    |  
 |  |  Au     Au     Au  |  
 |  |                    |  
 |Au|    Au     Au       |  
 | Au     Au     Au      |  
 |  |                    |  
 |  |Au     Au     Au    |  
 |  |                    |  
 |  |                    |  
 |  |                    |  
 |  |                    |  
 |  |                    |  
 |  |                    |  
 |  |                    |  
 |  |                    |  
 |  |                    |  
 |  |                    |  
 |  |                    |  
 |  .--------------------.  
 | /                    /   
 |/                    /    
 *--------------------*     

Unit Cell:
           Periodic     X           Y           Z      Points  Spacing
  --------------------------------------------------------------------
  1. axis:    yes    8.654987    0.000000    0.000000    56     0.1546
  2. axis:    yes    0.000000    4.996959    0.000000    32     0.1562
  3. axis:    no     0.000000    0.000000   28.711178   180     0.1595

Au-setup:
  name   : Gold
  id     : f729301af73151f9133db6f6e28f92a1
  Z      : 79
  valence: 11
  core   : 68
  charge : 0.0
  file   : /usr/share/gpaw-setups/Au.RPBE.gz
  cutoffs: 1.32(comp), 2.33(filt), 2.81(core), lmax=2
  valence states:
            energy   radius
    6s(1)   -5.611   1.323
    6p(0)   -0.793   1.323
    5d(10)  -6.824   1.323
    *s      21.600   1.323
    *p      26.419   1.323
    *d      20.388   1.323

Using partial waves for Au as LCAO basis

B-setup:
  name   : Boron
  id     : 4c085ebb9e6144015c26e053032a3a9b
  Z      : 5
  valence: 3
  core   : 2
  charge : 0.0
  file   : /usr/share/gpaw-setups/B.RPBE.gz
  cutoffs: 0.64(comp), 1.14(filt), 1.38(core), lmax=2
  valence states:
            energy   radius
    2s(2)   -9.489   0.635
    2p(1)   -3.587   0.635
    *s      17.723   0.635
    *p      23.625   0.635
    *d       0.000   0.635

Using partial waves for B as LCAO basis

F-setup:
  name   : Fluorine
  id     : 96d5c0c6d5d6dd1db009b0a4cc47c564
  Z      : 9
  valence: 7
  core   : 2
  charge : 0.0
  file   : /usr/share/gpaw-setups/F.RPBE.gz
  cutoffs: 0.64(comp), 1.14(filt), 0.74(core), lmax=2
  valence states:
            energy   radius
    2s(2)  -29.979   0.635
    2p(5)  -11.057   0.635
    *s      -2.768   0.635
    *p      16.154   0.635
    *d       0.000   0.635

Using partial waves for F as LCAO basis

Using the RPBE Exchange-Correlation Functional.
Spin-Paired Calculation
Total Charge:      0.000000
Fermi Temperature: 0.100000
Mode: Finite-difference
Eigensolver:       rmm-diis
                   (3 nearest neighbors central finite-difference stencil)
Poisson Solver:    Jacobi 
                   (3 nearest neighbors central finite-difference stencil)
Interpolation:     6th Order
Reference Energy:  -9310573.103046

Total number of cores used: 8
Domain Decomposition: 2 x 1 x 4
Diagonalizer layout: Serial LAPACK
Orthonormalizer layout: Serial LAPACK

Symmetries present: 1
8 k-points in the Irreducible Part of the Brillouin Zone (total: 16)
Linear Mixing Parameter:           0.1
Pulay Mixing with 3 Old Densities
Damping of Long Wave Oscillations: 50

Convergence Criteria:
Total Energy Change per Atom:           0.001 eV / atom
Integral of Absolute Density Change:    0.0001 electrons
Integral of Absolute Eigenstate Change: 1e-09
Number of Bands in Calculation:         182
Bands to Converge:                      Occupied States Only
Number of Valence Electrons:            229
                     log10-error:    Total        Iterations:
           Time      WFS    Density  Energy       Fermi  Poisson
iter:   1  07:45:04  -0.6            -63.58550    28     525    
iter:   2  08:01:08  -1.5   -1.6     -72.69686    10     372    
iter:   3  08:16:09  -2.0   -1.7     -72.21498    6      311    
iter:   4  08:32:47  -2.3   -1.8     -71.68636    14     437    
iter:   5  08:48:46  -2.3   -1.8     -70.31684    8      360    
iter:   6  09:01:53  -2.9   -2.0     -70.44876    4      119    
iter:   7  09:15:17  -3.3   -2.2     -70.39075    4      136    
iter:   8  09:29:07  -3.5   -2.3     -70.33616    3      154    
iter:   9  09:42:24  -3.8   -2.6     -70.32768    3      116    
iter:  10  09:55:00  -4.4   -2.7     -70.32776    3      64     
iter:  11  10:07:28  -4.7   -2.8     -70.32502    3      64     
iter:  12  10:20:16  -4.4   -2.9     -70.31945    3      83     
iter:  13  10:33:08  -4.9   -3.2     -70.32086    3      59     
iter:  14  10:45:05  -5.4   -3.3     -70.32151    2      11     
iter:  15  10:57:21  -4.9   -3.4     -70.32291    2      19     
iter:  16  11:09:38  -5.9   -3.8     -70.32343    2      9      
iter:  17  11:21:28  -6.2   -4.0     -70.32246    2      5      
iter:  18  11:33:33  -6.6   -4.0     -70.32101    2      4      
iter:  19  11:45:28  -6.5   -4.1     -70.32047    2      5      
iter:  20  11:57:27  -7.3   -4.3     -70.32035    2      4      
iter:  21  12:09:32  -7.4   -4.5     -70.32136    2      3      
iter:  22  12:21:28  -8.2   -4.7     -70.32203    2      2      
iter:  23  12:33:13  -8.1   -4.8     -70.32276    2      3      
iter:  24  12:44:51  -8.8   -4.9     -70.32291    2      2      
iter:  25  12:56:35  -8.2   -4.9     -70.32257    2      3      
iter:  26  13:08:37  -9.2   -5.1     -70.32267    2      1      
------------------------------------
Converged After 26 Iterations.

Energy Contributions Relative to Reference Atoms:(reference = -9310573.10305)
-------------------------
Kinetic:       -112.15241
Potential:      +80.30551
External:        +0.00000
XC:             -41.92185
Entropy (-ST):   -0.17866
Local:           +3.53542
-------------------------
Free Energy:    -70.41200
Zero Kelvin:    -70.32267

Fermi Level: -6.50945


Total Charge:  -0.000000 electrons
Dipole Moment: [-2.18455449 -4.82286348 -0.98455824]

Forces in eV/Ang:
  0 Au   -0.04038   -0.04950   -0.74359
  1 Au    0.00206    0.04616   -0.71094
  2 Au    0.03791   -0.00474   -0.67127
  3 Au    0.01314    0.06835   -0.70848
  4 Au    0.03832   -0.05984   -0.79522
  5 Au   -0.05099   -0.02664   -0.74005
  6 Au   -0.16268   -0.13090    0.37858
  7 Au    0.01779    0.04677    0.25344
  8 Au    0.15358   -0.03843    0.35009
  9 Au   -0.17711    0.12501    0.27375
 10 Au    0.15711    0.02743    0.28434
 11 Au    0.01289    0.02363    0.47289
 12 Au    0.13457    0.03919    0.16680
 13 Au    0.04876    0.16979    0.41071
 14 Au   -0.22810    0.03187    0.16197
 15 Au    0.08070   -0.09860    0.39255
 16 Au   -0.22284   -0.14288    0.45262
 17 Au    0.06940   -0.00420    0.22247
 18 B    -0.02081    0.00712    0.09690
 19 F    -0.41475   -0.22487    0.20241
 20 F     0.50618   -0.28007    0.28783
 21 F    -0.01546    0.48475    0.12271
 22 F    -0.01800   -0.01277   -0.08880

Positions:
  0 Au    1.4425    0.8328   12.0000
  1 Au    4.3275    0.8328   12.0000
  2 Au    7.2125    0.8328   12.0000
  3 Au    0.0000    3.3313   12.0000
  4 Au    2.8850    3.3313   12.0000
  5 Au    5.7700    3.3313   12.0000
  6 Au    0.0000    1.6657   14.3556
  7 Au    2.8850    1.6657   14.3556
  8 Au    5.7700    1.6657   14.3556
  9 Au    1.4425    4.1641   14.3556
 10 Au    4.3275    4.1641   14.3556
 11 Au    7.2125    4.1641   14.3556
 12 Au   -0.0580   -0.0008   16.8878
 13 Au    2.8796   -0.0353   16.6919
 14 Au    5.8233    0.0007   16.8939
 15 Au    1.3743    2.5095   16.6965
 16 Au    4.4074    2.5084   16.6963
 17 Au    7.2028    2.4988   16.9211
 18 B     2.8872    1.6674   19.6792
 19 F     4.0769    2.3341   19.1608
 20 F     1.7001    2.3435   19.1630
 21 F     2.8882    0.3133   19.1460
 22 F     2.8822    1.6612   21.0387

    .--------------------.  
   /|                    |  
  / |                    |  
 *  |                    |  
 |  |                    |  
 |  |                    |  
 |  |                    |  
 |  |                    |  
 |  |                    |  
 |  |                    |  
 |  |                    |  
 |  |    F               |  
 |  |                    |  
 |  |  F B  F            |  
 |  |   F                Au 
 |  |      Au            |  
 |  | Au     Au     Au   |  
 |  |          Au        |  
 |  |  Au     Au     Au  |  
 |  |                    |  
 |Au|    Au     Au       |  
 | Au     Au     Au      |  
 |  |                    |  
 |  |Au     Au     Au    |  
 |  |                    |  
 |  |                    |  
 |  |                    |  
 |  |                    |  
 |  |                    |  
 |  |                    |  
 |  |                    |  
 |  |                    |  
 |  |                    |  
 |  |                    |  
 |  |                    |  
 |  .--------------------.  
 | /                    /   
 |/                    /    
 *--------------------*     

Unit Cell:
           Periodic     X           Y           Z      Points  Spacing
  --------------------------------------------------------------------
  1. axis:    yes    8.654987    0.000000    0.000000    56     0.1546
  2. axis:    yes    0.000000    4.996959    0.000000    32     0.1562
  3. axis:    no     0.000000    0.000000   28.711178   180     0.1595

Au-setup:
  name   : Gold
  id     : f729301af73151f9133db6f6e28f92a1
  Z      : 79
  valence: 11
  core   : 68
  charge : 0.0
  file   : /usr/share/gpaw-setups/Au.RPBE.gz
  cutoffs: 1.32(comp), 2.33(filt), 2.81(core), lmax=2
  valence states:
            energy   radius
    6s(1)   -5.611   1.323
    6p(0)   -0.793   1.323
    5d(10)  -6.824   1.323
    *s      21.600   1.323
    *p      26.419   1.323
    *d      20.388   1.323

Using partial waves for Au as LCAO basis

B-setup:
  name   : Boron
  id     : 4c085ebb9e6144015c26e053032a3a9b
  Z      : 5
  valence: 3
  core   : 2
  charge : 0.0
  file   : /usr/share/gpaw-setups/B.RPBE.gz
  cutoffs: 0.64(comp), 1.14(filt), 1.38(core), lmax=2
  valence states:
            energy   radius
    2s(2)   -9.489   0.635
    2p(1)   -3.587   0.635
    *s      17.723   0.635
    *p      23.625   0.635
    *d       0.000   0.635

Using partial waves for B as LCAO basis

F-setup:
  name   : Fluorine
  id     : 96d5c0c6d5d6dd1db009b0a4cc47c564
  Z      : 9
  valence: 7
  core   : 2
  charge : 0.0
  file   : /usr/share/gpaw-setups/F.RPBE.gz
  cutoffs: 0.64(comp), 1.14(filt), 0.74(core), lmax=2
  valence states:
            energy   radius
    2s(2)  -29.979   0.635
    2p(5)  -11.057   0.635
    *s      -2.768   0.635
    *p      16.154   0.635
    *d       0.000   0.635

Using partial waves for F as LCAO basis

Using the RPBE Exchange-Correlation Functional.
Spin-Paired Calculation
Total Charge:      0.000000
Fermi Temperature: 0.100000
Mode: Finite-difference
Eigensolver:       rmm-diis
                   (3 nearest neighbors central finite-difference stencil)
Poisson Solver:    Jacobi 
                   (3 nearest neighbors central finite-difference stencil)
Interpolation:     6th Order
Reference Energy:  -9310573.103046

Total number of cores used: 8
Domain Decomposition: 2 x 1 x 4
Diagonalizer layout: Serial LAPACK
Orthonormalizer layout: Serial LAPACK

Symmetries present: 1
8 k-points in the Irreducible Part of the Brillouin Zone (total: 16)
Linear Mixing Parameter:           0.1
Pulay Mixing with 3 Old Densities
Damping of Long Wave Oscillations: 50

Convergence Criteria:
Total Energy Change per Atom:           0.001 eV / atom
Integral of Absolute Density Change:    0.0001 electrons
Integral of Absolute Eigenstate Change: 1e-09
Number of Bands in Calculation:         182
Bands to Converge:                      Occupied States Only
Number of Valence Electrons:            229
                     log10-error:    Total        Iterations:
           Time      WFS    Density  Energy       Fermi  Poisson
iter:   1  13:29:30  -0.6            -63.84802    29     528    
iter:   2  13:46:05  -1.5   -1.6     -72.75292    11     380    
iter:   3  14:00:59  -1.9   -1.7     -72.36064    6      295    
iter:   4  14:18:05  -2.4   -1.8     -71.52391    14     434    
iter:   5  14:34:15  -2.3   -1.8     -70.31261    9      377    
iter:   6  14:47:11  -2.9   -2.1     -70.50408    4      119    
