
  ___ ___ ___ _ _ _  
 |   |   |_  | | | | 
 | | | | | . | | | | 
 |__ |  _|___|_____|  0.7.2.6974
 |___|_|             

User: dirac@dirac
Date: Tue Apr 19 14:24:08 2011
Arch: x86_64
Pid:  1091
Dir:  /usr/lib/python2.6/dist-packages/gpaw
ase:   /usr/lib/python2.6/dist-packages/ase  version:  3.4.1
numpy: /usr/lib/python2.6/dist-packages/numpy
units: Angstrom and eV
